 &FCI NORB=  12,NELEC= 6,MS2=0,
  ORBSYM=1,1,1,1,1,1,1,1,1,1,1,1,
  ISYM=1,
 &END
 0.4236409690504033    1    1    1    1
 0.3380937571477289    1    1    2    2
 0.07593274153655521    1    1    3    1
 0.3460908113631617    1    1    3    3
 -0.07568997652398191    1    1    4    2
 0.3212034381393655    1    1    4    4
 0.005223042599817027    1    1    5    1
 -0.07850205099302987    1    1    5    3
 0.2927520070912975    1    1    5    5
 -0.0004835133404004022    1    1    6    2
 -0.08743401395421443    1    1    6    4
 0.3118558862220797    1    1    6    6
 0.06477298127962626    1    1    7    1
 0.02094562578566899    1    1    7    3
 -0.01057717815596178    1    1    7    5
 0.3608474895928211    1    1    7    7
 -0.04179755791127921    1    1    8    2
 0.02753538781892837    1    1    8    4
 -0.03165150430268511    1    1    8    6
 0.3114304414883655    1    1    8    8
 -0.02530016507621635    1    1    9    1
 -0.02582509269417312    1    1    9    3
 -0.03488647360301949    1    1    9    5
 -0.05934193734640601    1    1    9    7
 0.2824156305253569    1    1    9    9
 -0.02576391692969645    1    1   10    2
 0.02186187723579855    1    1   10    4
 0.06574971649347443    1    1   10    6
 0.03047943999155025    1    1   10    8
 0.327374833044789    1    1   10   10
 0.007204808066070451    1    1   11    1
 0.04490599070544845    1    1   11    3
 -0.06614046608305203    1    1   11    5
 0.02612686287986857    1    1   11    7
 -0.02914906686493832    1    1   11    9
 0.3682468261510584    1    1   11   11
 -0.007141721554176934    1    1   12    2
 0.03823245912378356    1    1   12    4
 -0.07755151657322855    1    1   12    6
 0.06076985856097177    1    1   12    8
 -0.02924458053842104    1    1   12   10
 0.421372133930653    1    1   12   12
 0.1265975631673387    2    1    2    1
 -0.09358000033640969    2    1    3    2
 -0.04734473698425175    2    1    4    1
 -0.06724650763972147    2    1    4    3
 0.04210112851328375    2    1    5    2
 -0.08035713110516204    2    1    5    4
 0.004309070755247119    2    1    6    1
 0.05571300171880625    2    1    6    3
 -0.06523267391491124    2    1    6    5
 0.03129094393930444    2    1    7    2
 -0.00628421104795129    2    1    7    4
 -0.008473999997803107    2    1    7    6
 -0.03363040724039994    2    1    8    1
 0.01217722856234625    2    1    8    3
 0.004260342687005413    2    1    8    5
 -0.1027713982134392    2    1    8    7
 0.007314264788687945    2    1    9    2
 0.04191401538890171    2    1    9    4
 -0.02704922280534521    2    1    9    6
 -0.05371807965664209    2    1    9    8
 -0.01754863730404123    2    1   10    1
 0.004904323312354402    2    1   10    3
 -0.05946521725191309    2    1   10    5
 -0.02532889447547043    2    1   10    7
 0.09555077091082774    2    1   10    9
 -0.02668645128416162    2    1   11    2
 0.02570033102793053    2    1   11    4
 0.0157333350814795    2    1   11    6
 0.044265897923098    2    1   11    8
 0.1190571373137473    2    1   11   10
 -0.00750824338694005    2    1   12    1
 -0.02654388289361055    2    1   12    3
 0.02796536990198014    2    1   12    5
 -0.01523138803399533    2    1   12    7
 0.04231618566316898    2    1   12    9
 -0.07560458392059095    2    1   12   11
 0.3380937571477289    2    2    1    1
 0.3604617185994172    2    2    2    2
 -0.02331423672422182    2    2    3    1
 0.323781983286571    2    2    3    3
 -0.02014731768238891    2    2    4    2
 0.3051754484790982    2    2    4    4
 0.03447112108948697    2    2    5    1
 -0.0276585648846087    2    2    5    3
 0.2935212417059103    2    2    5    5
 -0.0395381128049206    2    2    6    2
 -0.03122322472213119    2    2    6    4
 0.27976880796507    2    2    6    6
 0.04233903322011986    2    2    7    1
 -0.01627431259225212    2    2    7    3
 0.002486197836118172    2    2    7    5
 0.2994938636944624    2    2    7    7
 -0.04960158017214304    2    2    8    2
 -0.004245230379714915    2    2    8    4
 0.00141754988247164    2    2    8    6
 0.315255477920642    2    2    8    8
 -0.001131797345875702    2    2    9    1
 -0.04358545396210065    2    2    9    3
 -0.04117545870074163    2    2    9    5
 0.007163722912353827    2    2    9    7
 0.3096035059450807    2    2    9    9
 -0.0214520485255167    2    2   10    2
 0.05907107448622696    2    2   10    4
 0.03420277562294259    2    2   10    6
 0.007050306225329151    2    2   10    8
 0.357414927488492    2    2   10   10
 -0.02058627233120923    2    2   11    1
 0.01811824647317331    2    2   11    3
 -0.06427116238170164    2    2   11    5
 -0.02410984101833614    2    2   11    7
 0.01916315826185503    2    2   11    9
 0.3404177112570599    2    2   11   11
 0.0138372276861034    2    2   12    2
 0.004167851378100509    2    2   12    4
 -0.03069339379053764    2    2   12    6
 -0.007830479534365064    2    2   12    8
 -0.02167900875854034    2    2   12   10
 0.3060877339957685    2    2   12   12
 0.0759327415365552    3    1    1    1
 -0.02331423672422183    3    1    2    2
 0.09161737420647373    3    1    3    1
 0.02079091403960941    3    1    3    3
 -0.04793398128302404    3    1    4    2
 0.01339064610477717    3    1    4    4
 -0.02972182783153157    3    1    5    1
 -0.04538312988880285    3    1    5    3
 -0.00208715042533503    3    1    5    5
 0.03644007805663507    3    1    6    2
 -0.05098445079114002    3    1    6    4
 0.02862882366708372    3    1    6    6
 0.01994226704257399    3    1    7    1
 0.03422327459887145    3    1    7    3
 -0.01282158655614198    3    1    7    5
 0.05487600477224859    3    1    7    7
 0.007606364563987484    3    1    8    2
 0.02808620424626149    3    1    8    4
 -0.03024731270698397    3    1    8    6
 -0.00473802179669692    3    1    8    8
 -0.02086540218401991    3    1    9    1
 0.01534764453182024    3    1    9    3
 0.006317074360866401    3    1    9    5
 -0.05993646193305965    3    1    9    7
 -0.02391182628449451    3    1    9    9
 -0.00097123523375237    3    1   10    2
 -0.03488346494616017    3    1   10    4
 0.02740594144161041    3    1   10    6
 0.01867148735122483    3    1   10    8
 -0.03025760519909023    3    1   10   10
 0.02736667866246192    3    1   11    1
 0.02325545638596567    3    1   11    3
 0.0003279921444744886    3    1   11    5
 0.04829459802434394    3    1   11    7
 -0.04467481738078111    3    1   11    9
 0.02192509458705101    3    1   11   11
 -0.02015317644443509    3    1   12    2
 0.03211954837796695    3    1   12    4
 -0.04257914947008967    3    1   12    6
 0.06304507128951078    3    1   12    8
 -0.005569595253344436    3    1   12   10
 0.104553861301446    3    1   12   12
 -0.09358000033640969    3    2    2    1
 0.1112111159431354    3    2    3    2
 -0.006932599046054829    3    2    4    1
 0.06773953204715805    3    2    4    3
 -0.01210973438334082    3    2    5    2
 0.08431782897725609    3    2    5    4
 0.02430678090182386    3    2    6    1
 -0.02664065506737131    3    2    6    3
 0.0611720736893737    3    2    6    5
 -0.02402794901353726    3    2    7    2
 -0.01244730584754707    3    2    7    4
 0.02201330800396204    3    2    7    6
 0.01775485946986916    3    2    8    1
 -0.03168454644313572    3    2    8    3
 -0.00686374557222437    3    2    8    5
 0.07894942300542715    3    2    8    7
 -0.03134497168975349    3    2    9    2
 -0.03948208643612458    3    2    9    4
 0.03171278077175462    3    2    9    6
 0.08589056522785954    3    2    9    8
 0.006171896608031784    3    2   10    1
 0.02300295305489378    3    2   10    3
 0.04267924003975919    3    2   10    5
 -0.001003069925892202    3    2   10    7
 -0.1104612371254592    3    2   10    9
 0.01176835280390687    3    2   11    2
 -0.02985740819338799    3    2   11    4
 0.009973401780487837    3    2   11    6
 -0.03446893230975719    3    2   11    8
 -0.09506831624195906    3    2   11   10
 -0.0148348167452546    3    2   12    1
 0.0017345828364249    3    2   12    3
 -0.004519201266580774    3    2   12    5
 -0.0245519095435834    3    2   12    7
 -0.02725001077787945    3    2   12    9
 0.03470282717289438    3    2   12   11
 0.3460908113631617    3    3    1    1
 0.323781983286571    3    3    2    2
 0.02079091403960941    3    3    3    1
 0.33504944199167    3    3    3    3
 -0.01099462910901409    3    3    4    2
 0.3037999396453775    3    3    4    4
 -0.005916786608600586    3    3    5    1
 -0.02957715747736845    3    3    5    3
 0.282340755252467    3    3    5    5
 -0.01402417949827129    3    3    6    2
 -0.04539130382755889    3    3    6    4
 0.2860749789078931    3    3    6    6
 0.04788779720591831    3    3    7    1
 0.0002013198983742779    3    3    7    3
 -0.01122520419139275    3    3    7    5
 0.3073132009388583    3    3    7    7
 -0.04472613289353084    3    3    8    2
 -0.001930840449739154    3    3    8    4
 -0.01085993376146442    3    3    8    6
 0.3013481593778658    3    3    8    8
 0.001023384397373539    3    3    9    1
 -0.04883274810433159    3    3    9    3
 -0.0321180111434115    3    3    9    5
 -0.006018973667595773    3    3    9    7
 0.3119664442670048    3    3    9    9
 0.00755720741850403    3    3   10    2
 0.03841664764871557    3    3   10    4
 0.02807376766142213    3    3   10    6
 -0.01486026891672714    3    3   10    8
 0.3202842401463752    3    3   10   10
 0.01013369330981441    3    3   11    1
 0.01682967894434648    3    3   11    3
 -0.0445109104326358    3    3   11    5
 0.01820381454371496    3    3   11    7
 -0.0002092757721364989    3    3   11    9
 0.3135534399547541    3    3   11   11
 -0.003027120942820288    3    3   12    2
 0.02872372126567673    3    3   12    4
 -1.060766224281205e-15    3    3   12    5
 -0.04617131947003664    3    3   12    6
 0.02058905605441532    3    3   12    8
 -0.01129126182681609    3    3   12   10
 -1.176543401729542e-15    3    3   12   11
 0.3390850743239309    3    3   12   12
 -0.04734473698425175    4    1    2    1
 -0.006932599046054826    4    1    3    2
 0.05964635164357079    4    1    4    1
 0.005980510718194259    4    1    4    3
 -0.03589242082930585    4    1    5    2
 0.004147071121001474    4    1    5    4
 -0.02819547715908606    4    1    6    1
 -0.03601860671140583    4    1    6    3
 0.01084086427985755    4    1    6    5
 -0.01051312708854305    4    1    7    2
 0.01910751546230026    4    1    7    4
 -0.01232911548464468    4    1    7    6
 0.01919466636356891    4    1    8    1
 0.01820289433647805    4    1    8    3
 0.002154655278936124    4    1    8    5
 0.03543221894977806    4    1    8    7
 0.02341005040210595    4    1    9    2
 -0.006950883950622396    4    1    9    4
 -0.002478109364601871    4    1    9    6
 -0.02651444417261605    4    1    9    8
 0.0137586931464095    4    1   10    1
 -0.02892112451019693    4    1   10    3
 0.02399926527398356    4    1   10    5
 0.02996118954748309    4    1   10    7
 0.004831049879455953    4    1   10    9
 0.01833072030535417    4    1   11    2
 0.0007847388536151682    4    1   11    4
 -0.02788382084824449    4    1   11    6
 -0.01567327574070103    4    1   11    8
 -0.03767558049253655    4    1   11   10
 0.02269527283733614    4    1   12    1
 0.02730435932047888    4    1   12    3
 -0.02687898571406491    4    1   12    5
 0.04109452315897708    4    1   12    7
 -0.01955253903718721    4    1   12    9
 0.04935001253984105    4    1   12   11
 -0.07568997652398192    4    2    1    1
 -0.02014731768238891    4    2    2    2
 -0.04793398128302404    4    2    3    1
 -0.01099462910901408    4    2    3    3
 0.06437248305201516    4    2    4    2
 -0.01553399587334151    4    2    4    4
 -0.01620335308691277    4    2    5    1
 0.0500660523855652    4    2    5    3
 -0.01131847225184649    4    2    5    5
 -0.007513381665571312    4    2    6    2
 0.04001014823638008    4    2    6    4
 -0.02405650882122384    4    2    6    6
 -0.01500602102470355    4    2    7    1
 -0.01740736539473411    4    2    7    3
 -0.002377160175419986    4    2    7    5
 -0.05281457201894053    4    2    7    7
 -0.002660219003985393    4    2    8    2
 -0.02786478964592549    4    2    8    4
 0.01837910960753049    4    2    8    6
 -0.01284247871189346    4    2    8    8
 0.02516408035397334    4    2    9    1
 -0.02347780942955671    4    2    9    3
 0.004791082879386564    4    2    9    5
 0.05069749041637404    4    2    9    7
 0.02880246628721512    4    2    9    9
 0.03666194388225171    4    2   10    2
 0.01318294990560772    4    2   10    4
 -0.03894773267919963    4    2   10    6
 -0.04796376131415189    4    2   10    8
 -0.01282820754467448    4    2   10   10
 0.007500326184892319    4    2   11    1
 -0.0271241911333583    4    2   11    3
 0.02439402751672824    4    2   11    5
 -0.001736503191549475    4    2   11    7
 0.02652625427349942    4    2   11    9
 -0.05877036809925019    4    2   11   11
 0.001717644106242501    4    2   12    2
 -0.005077922065853211    4    2   12    4
 0.02831966790888886    4    2   12    6
 -0.03495751194992642    4    2   12    8
 0.01888763225116152    4    2   12   10
 -0.07654084543507117    4    2   12   12
 -0.06724650763972148    4    3    2    1
 0.06773953204715803    4    3    3    2
 0.00598051071819426    4    3    4    1
 0.07280919021671407    4    3    4    3
 0.01261608667846159    4    3    5    2
 0.06308705503989065    4    3    5    4
 -0.01264396002728897    4    3    6    1
 -0.02281214161038645    4    3    6    3
 0.05222221498429012    4    3    6    5
 -0.01708570632294813    4    3    7    2
 -0.002786886156927162    4    3    7    4
 0.003965359986805015    4    3    7    6
 0.02118756133596133    4    3    8    1
 -0.01330964061421582    4    3    8    3
 -0.01435934348961421    4    3    8    5
 0.06523292984832381    4    3    8    7
 -0.02507500824027984    4    3    9    2
 -0.03222325600555265    4    3    9    4
 0.03530633022399449    4    3    9    6
 0.06254193386352261    4    3    9    8
 -0.01505145490730382    4    3   10    1
 0.02137342720138231    4    3   10    3
 0.01859615179089167    4    3   10    5
 -0.01447417119631535    4    3   10    7
 -0.08448498774103298    4    3   10    9
 -0.01047494092675325    4    3   11    2
 -0.003937269558501074    4    3   11    4
 0.007788484011404723    4    3   11    6
 -0.00166506594900648    4    3   11    8
 -0.05417530203025726    4    3   11   10
 0.0159975104581045    4    3   12    1
 0.0200779336509424    4    3   12    3
 -0.005322584863228527    4    3   12    5
 0.01383116808324114    4    3   12    7
 -0.0383699255360682    4    3   12    9
 0.03906927427288212    4    3   12   11
 0.3212034381393655    4    4    1    1
 0.3051754484790982    4    4    2    2
 0.01339064610477714    4    4    3    1
 0.3037999396453775    4    4    3    3
 -0.01553399587334151    4    4    4    2
 0.2970015241072151    4    4    4    4
 0.003381440745598329    4    4    5    1
 -0.0156431984664569    4    4    5    3
 0.2754290000501718    4    4    5    5
 -0.003974720674933218    4    4    6    2
 -0.03326731685111611    4    4    6    4
 0.2752000760511858    4    4    6    6
 0.03966125235554162    4    4    7    1
 -0.0001823927487757387    4    4    7    3
 -0.00648849922911922    4    4    7    5
 0.2865315693262789    4    4    7    7
 -0.03826755310917129    4    4    8    2
 0.0008574846764616669    4    4    8    4
 -0.00942966159924568    4    4    8    6
 0.2832590801922978    4    4    8    8
 -0.003724897226564137    4    4    9    1
 -0.03749593609275154    4    4    9    3
 -0.02568973072565692    4    4    9    5
 -0.005782716941555625    4    4    9    7
 0.2895645084566504    4    4    9    9
 0.000110420785866082    4    4   10    2
 0.03238162768338696    4    4   10    4
 0.02259835347296864    4    4   10    6
 -0.007609553404741343    4    4   10    8
 0.3045274116296381    4    4   10   10
 0.003667611564525757    4    4   11    1
 0.01729326144955185    4    4   11    3
 -0.03781973800672913    4    4   11    5
 0.009492396823244943    4    4   11    7
 0.004536054618968357    4    4   11    9
 0.2966889531014333    4    4   11   11
 0.001647822209626341    4    4   12    2
 0.02279412174733238    4    4   12    4
 -0.03678542678001718    4    4   12    6
 0.01710228237321036    4    4   12    8
 -0.01158073914946949    4    4   12   10
 0.3132539910666535    4    4   12   12
 0.005223042599817043    5    1    1    1
 0.03447112108948699    5    1    2    2
 -0.02972182783153158    5    1    3    1
 -0.005916786608600592    5    1    3    3
 -0.01620335308691275    5    1    4    2
 0.00338144074559831    5    1    4    4
 0.03533629358311471    5    1    5    1
 -0.006435596505173754    5    1    5    3
 0.01115526958980443    5    1    5    5
 -0.02114100018500626    5    1    6    2
 0.005471587420061013    5    1    6    4
 -0.001591679270516738    5    1    6    6
 -0.002281093502980133    5    1    7    1
 -0.01134206925251352    5    1    7    3
 0.01116211640340571    5    1    7    5
 0.00225547569418305    5    1    7    7
 -0.003887077348596171    5    1    8    2
 0.001354125279849044    5    1    8    4
 0.007635312825656521    5    1    8    6
 0.01480927235375865    5    1    8    8
 -0.004805150261724099    5    1    9    1
 0.006760535686576378    5    1    9    3
 -0.008822641476155219    5    1    9    5
 0.004149361886046378    5    1    9    7
 -0.004333156195938226    5    1    9    9
 -0.02852953036446025    5    1   10    2
 0.01587621774706538    5    1   10    4
 0.01092084914681695    5    1   10    6
 0.02434359294471633    5    1   10    8
 0.03385802431149468    5    1   10   10
 -0.02612064194897632    5    1   11    1
 0.004633045125937087    5    1   11    3
 -0.02027845390849909    5    1   11    5
 -0.03459396821806607    5    1   11    7
 0.01218878636215424    5    1   11    9
 0.03154286919102579    5    1   11   11
 0.01365161774564635    5    1   12    2
 -0.01959139182555306    5    1   12    4
 0.008537537482117703    5    1   12    6
 -0.01876363224560187    5    1   12    8
 -0.01105999139990949    5    1   12   10
 -0.0153853617593526    5    1   12   12
 0.04210112851328372    5    2    2    1
 -0.01210973438334082    5    2    3    2
 -0.03589242082930588    5    2    4    1
 0.0126160866784616    5    2    4    3
 0.04728429205559526    5    2    5    2
 -0.005327616304226534    5    2    5    4
 -0.006339235026024437    5    2    6    1
 0.02680948713088007    5    2    6    3
 -0.004273471023646368    5    2    6    5
 0.009877089098059257    5    2    7    2
 -0.008309454826392823    5    2    7    4
 -0.00214309462104492    5    2    7    6
 -0.008631795502117108    5    2    8    1
 -0.003552570897656487    5    2    8    3
 -0.00916296823153937    5    2    8    5
 -0.02483017867939285    5    2    8    7
 -0.01782768435619643    5    2    9    2
 0.004937620512828042    5    2    9    4
 0.01115041674032886    5    2    9    6
 0.01564556109464589    5    2    9    8
 -0.02772010729865617    5    2   10    1
 0.02476697278670541    5    2   10    3
 -0.03203057074059704    5    2   10    5
 -0.03486322775991876    5    2   10    7
 -0.00127291275148715    5    2   10    9
 -0.03116420163549104    5    2   11    2
 0.01667512635292669    5    2   11    4
 0.02175340360358102    5    2   11    6
 0.03418387639013616    5    2   11    8
 0.04710296649245372    5    2   11   10
 0.006547984566930209    5    2   12    1
 -0.004886071667469703    5    2   12    3
 0.01931643477823597    5    2   12    5
 -0.002832942266082161    5    2   12    7
 0.000552535566219382    5    2   12    9
 -0.02778687923631574    5    2   12   11
 -0.07850205099302988    5    3    1    1
 -0.02765856488460868    5    3    2    2
 -0.04538312988880287    5    3    3    1
 -0.02957715747736843    5    3    3    3
 0.05006605238556523    5    3    4    2
 -0.01564319846645696    5    3    4    4
 -0.006435596505173787    5    3    5    1
 0.05171208821230709    5    3    5    3
 -0.01325168120320693    5    3    5    5
 0.0008098237665997723    5    3    6    2
 0.04105187961490316    5    3    6    4
 -0.0264854333911557    5    3    6    6
 -0.01718035912610838    5    3    7    1
 -0.01447075282223962    5    3    7    3
 0.001204506031452562    5    3    7    5
 -0.05736193964842296    5    3    7    7
 0.001551800641042647    5    3    8    2
 -0.02095117595871319    5    3    8    4
 0.01601863947669127    5    3    8    6
 -0.02177127389858226    5    3    8    8
 0.01719034195152319    5    3    9    1
 -0.01257155542613754    5    3    9    3
 0.008197769485434285    5    3    9    5
 0.04261783525544836    5    3    9    7
 0.009783078121458439    5    3    9    9
 0.02536938046579549    5    3   10    2
 0.007512743968072512    5    3   10    4
 -0.03615079137609024    5    3   10    6
 -0.0351148003067627    5    3   10    8
 -0.02006773033071613    5    3   10   10
 0.002113207019042599    5    3   11    1
 -0.02192477635629706    5    3   11    3
 0.02417929884009019    5    3   11    5
 -0.007641584500894379    5    3   11    7
 0.02569849082466581    5    3   11    9
 -0.05943230922359109    5    3   11   11
 0.004465290939283068    5    3   12    2
 -0.007877237808132063    5    3   12    4
 0.0292976245797657    5    3   12    6
 -0.03132145558945638    5    3   12    8
 0.01526732713680281    5    3   12   10
 -0.07985110759210062    5    3   12   12
 -0.0803571311051621    5    4    2    1
 0.08431782897725602    5    4    3    2
 0.004147071121001457    5    4    4    1
 0.06308705503989061    5    4    4    3
 -0.005327616304226491    5    4    5    2
 0.08543645786851733    5    4    5    4
 0.006044923003109789    5    4    6    1
 -0.01262454027721144    5    4    6    3
 0.06508017760477801    5    4    6    5
 -1.900509282623771e-15    5    4    6    6
 -0.01614348795016589    5    4    7    2
 -0.004878355711679824    5    4    7    4
 0.01633453963131148    5    4    7    6
 0.01421368790936687    5    4    8    1
 -0.01826355669247487    5    4    8    3
 -0.003966283508532417    5    4    8    5
 0.06856713534495643    5    4    8    7
 -0.01470601185603829    5    4    9    2
 -0.02378555376628887    5    4    9    4
 0.03179878414727388    5    4    9    6
 0.06398835803253754    5    4    9    8
 0.007335154802379816    5    4   10    1
 0.01011150957866895    5    4   10    3
 0.0276828238119829    5    4   10    5
 0.003326600449186154    5    4   10    7
 -0.09033332433534362    5    4   10    9
 0.01288916593448666    5    4   11    2
 -0.01725724432968759    5    4   11    4
 0.01262542794812888    5    4   11    6
 -0.0288300388405496    5    4   11    8
 -0.08213596574505079    5    4   11   10
 -0.01015549112839176    5    4   12    1
 0.005999135283564662    5    4   12    3
 -0.003986591788829669    5    4   12    5
 -2.116261725790744e-15    5    4   12    6
 -0.01188263683876115    5    4   12    7
 -0.02358276478006336    5    4   12    9
 0.03581283103244375    5    4   12   11
 -2.708863802156262e-15    5    4   12   12
 0.2927520070912978    5    5    1    1
 0.2935212417059103    5    5    2    2
 -0.002087150425334988    5    5    3    1
 0.2823407552524669    5    5    3    3
 -0.01131847225184665    5    5    4    2
 0.2754290000501717    5    5    4    4
 0.01115526958980451    5    5    5    1
 -0.0132516812032068    5    5    5    3
 0.2719127598574122    5    5    5    5
 -0.01214005004739634    5    5    6    2
 -0.01221344590704786    5    5    6    4
 -1.030442609411857e-15    5    5    6    5
 0.2609192874690098    5    5    6    6
 0.0313533900214853    5    5    7    1
 -0.004147060240124711    5    5    7    3
 0.001037216309750054    5    5    7    5
 0.2628063506020177    5    5    7    7
 -0.03185724825658666    5    5    8    2
 0.001680026941978243    5    5    8    4
 -0.002276584790302234    5    5    8    6
 0.2658948373682684    5    5    8    8
 -0.004855424569668108    5    5    9    1
 -0.02365795052224032    5    5    9    3
 -0.01972228634250763    5    5    9    5
 -0.001228898671158089    5    5    9    7
 0.2663736569836356    5    5    9    9
 -0.01585235047756691    5    5   10    2
 0.03081997035159205    5    5   10    4
 0.01901547622947937    5    5   10    6
 0.003549130636714962    5    5   10    8
 0.2955213728606225    5    5   10   10
 -0.01087896810485873    5    5   11    1
 0.01839014526550321    5    5   11    3
 -0.03669315360733589    5    5   11    5
 -0.007106498887723984    5    5   11    7
 0.01107470118831756    5    5   11    9
 0.2892168888664673    5    5   11   11
 0.008112147307608567    5    5   12    2
 0.01090997331315093    5    5   12    4
 -1.315076265676875e-15    5    5   12    5
 -0.0234166059508345    5    5   12    6
 0.002595844370238271    5    5   12    8
 -0.01686333825036493    5    5   12   10
 0.275669646340925    5    5   12   12
 0.004309070755247136    6    1    2    1
 0.02430678090182387    6    1    3    2
 -0.02819547715908607    6    1    4    1
 -0.01264396002728895    6    1    4    3
 -0.006339235026024425    6    1    5    2
 0.006044923003109731    6    1    5    4
 0.03502320790012863    6    1    6    1
 0.01093727388496722    6    1    6    3
 -0.003820394886727421    6    1    6    5
 -0.0003701664829761931    6    1    7    2
 -0.01221607241499801    6    1    7    4
 0.01507034096875059    6    1    7    6
 -0.009745305604342927    6    1    8    1
 -0.01744879495328623    6    1    8    3
 0.00537480619694038    6    1    8    5
 -0.008574451720366399    6    1    8    7
 -0.01007902592412382    6    1    9    2
 -0.0009092219509479681    6    1    9    4
 -0.004875025116611464    6    1    9    6
 0.01846048127575025    6    1    9    8
 0.0110202044658975    6    1   10    1
 0.009335691599770921    6    1   10    3
 0.007190409809356687    6    1   10    5
 5.019090208282257e-06    6    1   10    7
 -0.01124550226777725    6    1   10    9
 0.009672029027286368    6    1   11    2
 -0.01736999420360449    6    1   11    4
 0.009093698296164821    6    1   11    6
 -0.0158952292771345    6    1   11    8
 -0.009834134259846064    6    1   11   10
 -0.02899493935006316    6    1   12    1
 -0.02224360676686849    6    1   12    3
 0.009549940930180042    6    1   12    5
 -0.03993720683188642    6    1   12    7
 0.01713319550595748    6    1   12    9
 -0.02267839199175478    6    1   12   11
 -0.0004835133404004984    6    2    1    1
 -0.03953811280492068    6    2    2    2
 0.03644007805663511    6    2    3    1
 -0.01402417949827124    6    2    3    3
 -0.007513381665571262    6    2    4    2
 -0.003974720674933162    6    2    4    4
 -0.02114100018500622    6    2    5    1
 0.0008098237665996734    6    2    5    3
 -0.01214005004739649    6    2    5    5
 0.02891084388872637    6    2    6    2
 -0.008036222095131353    6    2    6    4
 0.0005531632075070037    6    2    6    6
 0.000330040616246988    6    2    7    1
 0.01581846125641064    6    2    7    3
 -0.005948387305843295    6    2    7    5
 -0.001723640932249149    6    2    7    7
 0.009839573063464788    6    2    8    2
 0.009693525651467505    6    2    8    4
 -0.01163163039299734    6    2    8    6
 -0.02361579926679718    6    2    8    8
 -0.006891757899396881    6    2    9    1
 0.01001860262180257    6    2    9    3
 0.01185628670274567    6    2    9    5
 -0.01928139936361981    6    2    9    7
 -0.02246357127858397    6    2    9    9
 0.009367436798394215    6    2   10    2
 -0.02361723282974727    6    2   10    4
 -0.002105810565383706    6    2   10    6
 -0.001993439001949314    6    2   10    8
 -0.040049310673769    6    2   10   10
 0.01712571088957586    6    2   11    1
 0.004222742066348543    6    2   11    3
 0.0163278455496299    6    2   11    5
 0.02578945300959733    6    2   11    7
 -0.0162954242134592    6    2   11    9
 -0.02397455281266426    6    2   11   11
 -0.01011535091754069    6    2   12    2
 0.01486026682077702    6    2   12    4
 -0.009334352228153733    6    2   12    6
 0.02513233542107831    6    2   12    8
 0.004108624334430443    6    2   12   10
 0.01804575490933052    6    2   12   12
 0.05571300171880616    6    3    2    1
 -0.02664065506737132    6    3    3    2
 -0.03601860671140591    6    3    4    1
 -0.02281214161038642    6    3    4    3
 0.02680948713088    6    3    5    2
 -0.01262454027721168    6    3    5    4
 0.01093727388496732    6    3    6    1
 0.04170752756802406    6    3    6    3
 -0.01468706475475237    6    3    6    5
 1.048875860244852e-15    6    3    6    6
 0.01662217933544271    6    3    7    2
 -0.007154782928604923    6    3    7    4
 0.004511912626033072    6    3    7    6
 -0.02100115761037658    6    3    8    1
 -0.0006418258596750123    6    3    8    3
 0.004681039209496503    6    3    8    5
 -0.04597946142724868    6    3    8    7
 0.001674777219662306    6    3    9    2
 0.02355317156538459    6    3    9    4
 -0.005472128569057418    6    3    9    6
 -0.009748894010031015    6    3    9    8
 -0.003811881789912484    6    3   10    1
 0.006192105736391173    6    3   10    3
 -0.03108327378588077    6    3   10    5
 -0.01396351231391652    6    3   10    7
 0.02828979373539034    6    3   10    9
 -0.008407644958194429    6    3   11    2
 0.008182898042930832    6    3   11    4
 0.02053266054041779    6    3   11    6
 0.01335070366341707    6    3   11    8
 0.04520957048804494    6    3   11   10
 1.290433272684158e-15    6    3   11   11
 -0.01784291822654152    6    3   12    1
 -0.02186159538359273    6    3   12    3
 0.02071980605683804    6    3   12    5
 -0.02530950586704601    6    3   12    7
 0.02566501298084643    6    3   12    9
 -0.04255631505230865    6    3   12   11
 -0.08743401395421434    6    4    1    1
 -0.03122322472213118    6    4    2    2