 &FCI NORB=  12,NELEC= 6,MS2=0,
  ORBSYM=0,5,0,5,0,5,0,5,0,5,0,5
  ISYM=1,
 &END
 0.4236409690504032    1    1    1    1
 0.3380937571477289    1    1    2    2
 0.07593274153655519    1    1    3    1
 0.3460908113631617    1    1    3    3
 -0.07568997652398188    1    1    4    2
 0.3212034381393655    1    1    4    4
 0.005223042599817065    1    1    5    1
 -0.07850205099302977    1    1    5    3
 0.2927520070912972    1    1    5    5
 -0.0004835133404004265    1    1    6    2
 -0.08743401395421467    1    1    6    4
 0.3118558862220815    1    1    6    6
 0.06477298127962625    1    1    7    1
 0.02094562578566897    1    1    7    3
 -0.01057717815596175    1    1    7    5
 0.3608474895928211    1    1    7    7
 -0.04179755791127922    1    1    8    2
 0.02753538781892835    1    1    8    4
 -0.03165150430268525    1    1    8    6
 0.3114304414883656    1    1    8    8
 -0.02530016507621634    1    1    9    1
 -0.02582509269417315    1    1    9    3
 -0.03488647360301936    1    1    9    5
 -0.05934193734640602    1    1    9    7
 0.282415630525357    1    1    9    9
 -0.02576391692969643    1    1   10    2
 0.02186187723579849    1    1   10    4
 0.06574971649347465    1    1   10    6
 0.03047943999155025    1    1   10    8
 0.3273748330447893    1    1   10   10
 0.007204808066070477    1    1   11    1
 0.04490599070544856    1    1   11    3
 -0.06614046608305219    1    1   11    5
 0.02612686287986847    1    1   11    7
 -0.02914906686493814    1    1   11    9
 0.3682468261510583    1    1   11   11
 -0.007141721554176964    1    1   12    2
 0.03823245912378328    1    1   12    4
 -0.07755151657322543    1    1   12    6
 0.06076985856097127    1    1   12    8
 -0.02924458053842098    1    1   12   10
 0.4213721339306575    1    1   12   12
 0.1265975631673388    2    1    2    1
 -0.09358000033640969    2    1    3    2
 -0.04734473698425176    2    1    4    1
 -0.06724650763972148    2    1    4    3
 0.04210112851328372    2    1    5    2
 -0.0803571311051621    2    1    5    4
 0.004309070755247116    2    1    6    1
 0.05571300171880618    2    1    6    3
 -0.06523267391491129    2    1    6    5
 0.03129094393930445    2    1    7    2
 -0.006284211047951275    2    1    7    4
 -0.008473999997803194    2    1    7    6
 -0.03363040724039994    2    1    8    1
 0.01217722856234628    2    1    8    3
 0.004260342687005409    2    1    8    5
 -0.1027713982134392    2    1    8    7
 0.007314264788687944    2    1    9    2
 0.0419140153889017    2    1    9    4
 -0.02704922280534524    2    1    9    6
 -0.05371807965664207    2    1    9    8
 -0.01754863730404123    2    1   10    1
 0.004904323312354414    2    1   10    3
 -0.05946521725191303    2    1   10    5
 -0.02532889447547043    2    1   10    7
 0.09555077091082774    2    1   10    9
 -0.02668645128416164    2    1   11    2
 0.02570033102793046    2    1   11    4
 0.01573333508147956    2    1   11    6
 0.04426589792309797    2    1   11    8
 0.1190571373137474    2    1   11   10
 -0.007508243386940041    2    1   12    1
 -0.02654388289361055    2    1   12    3
 0.02796536990198012    2    1   12    5
 1.10764741476533e-15    2    1   12    6
 -0.01523138803399547    2    1   12    7
 0.04231618566316903    2    1   12    9
 -0.07560458392059093    2    1   12   11
 1.676207344577481e-15    2    1   12   12
 0.3380937571477289    2    2    1    1
 0.3604617185994172    2    2    2    2
 -0.02331423672422182    2    2    3    1
 0.323781983286571    2    2    3    3
 -0.02014731768238892    2    2    4    2
 0.3051754484790982    2    2    4    4
 0.03447112108948696    2    2    5    1
 -0.02765856488460865    2    2    5    3
 0.2935212417059101    2    2    5    5
 -0.03953811280492063    2    2    6    2
 -0.03122322472213117    2    2    6    4
 0.2797688079650684    2    2    6    6
 0.04233903322011988    2    2    7    1
 -0.01627431259225211    2    2    7    3
 0.002486197836118212    2    2    7    5
 0.2994938636944624    2    2    7    7
 -0.04960158017214308    2    2    8    2
 -0.00424523037971482    2    2    8    4
 0.001417549882472408    2    2    8    6
 0.3152554779206417    2    2    8    8
 -0.001131797345875708    2    2    9    1
 -0.04358545396210067    2    2    9    3
 -0.04117545870074162    2    2    9    5
 0.007163722912353819    2    2    9    7
 0.3096035059450807    2    2    9    9
 -0.02145204852551672    2    2   10    2
 0.05907107448622696    2    2   10    4
 0.03420277562294278    2    2   10    6
 0.007050306225329078    2    2   10    8
 0.3574149274884919    2    2   10   10
 -0.02058627233120924    2    2   11    1
 0.01811824647317337    2    2   11    3
 -0.06427116238170184    2    2   11    5
 -0.02410984101833611    2    2   11    7
 0.01916315826185504    2    2   11    9
 0.3404177112570596    2    2   11   11
 0.01383722768610342    2    2   12    2
 0.004167851378100549    2    2   12    4
 -0.03069339379053929    2    2   12    6
 -0.007830479534364682    2    2   12    8
 -0.02167900875854026    2    2   12   10
 0.3060877339957668    2    2   12   12
 0.07593274153655519    3    1    1    1
 -0.02331423672422183    3    1    2    2
 0.09161737420647371    3    1    3    1
 0.02079091403960941    3    1    3    3
 -0.04793398128302404    3    1    4    2
 0.01339064610477717    3    1    4    4
 -0.02972182783153159    3    1    5    1
 -0.04538312988880287    3    1    5    3
 -0.002087150425334988    3    1    5    5
 0.0364400780566351    3    1    6    2
 -0.05098445079114006    3    1    6    4
 0.02862882366708371    3    1    6    6
 0.01994226704257399    3    1    7    1
 0.03422327459887144    3    1    7    3
 -0.01282158655614201    3    1    7    5
 0.05487600477224862    3    1    7    7
 0.007606364563987481    3    1    8    2
 0.0280862042462615    3    1    8    4
 -0.03024731270698431    3    1    8    6
 -0.004738021796696789    3    1    8    8
 -0.02086540218401991    3    1    9    1
 0.01534764453182024    3    1    9    3
 0.006317074360866339    3    1    9    5
 -0.05993646193305965    3    1    9    7
 -0.02391182628449451    3    1    9    9
 -0.0009712352337523611    3    1   10    2
 -0.03488346494616016    3    1   10    4
 0.02740594144161032    3    1   10    6
 0.01867148735122485    3    1   10    8
 -0.03025760519909028    3    1   10   10
 0.0273666786624619    3    1   11    1
 0.02325545638596562    3    1   11    3
 0.0003279921444746206    3    1   11    5
 0.04829459802434397    3    1   11    7
 -0.04467481738078123    3    1   11    9
 0.02192509458705124    3    1   11   11
 -0.02015317644443507    3    1   12    2
 0.03211954837796693    3    1   12    4
 -0.04257914947008974    3    1   12    6
 0.06304507128951059    3    1   12    8
 -0.005569595253344548    3    1   12   10
 0.1045538613014458    3    1   12   12
 -0.09358000033640969    3    2    2    1
 0.1112111159431354    3    2    3    2
 -0.006932599046054829    3    2    4    1
 0.06773953204715803    3    2    4    3
 -0.01210973438334082    3    2    5    2
 0.08431782897725615    3    2    5    4
 0.02430678090182389    3    2    6    1
 -0.02664065506737133    3    2    6    3
 0.06117207368937384    3    2    6    5
 -1.226920624879414e-15    3    2    6    6
 -0.02402794901353724    3    2    7    2
 -0.01244730584754708    3    2    7    4
 0.02201330800396195    3    2    7    6
 0.01775485946986913    3    2    8    1
 -0.03168454644313571    3    2    8    3
 -0.006863745572224448    3    2    8    5
 0.07894942300542715    3    2    8    7
 -0.0313449716897535    3    2    9    2
 -0.03948208643612455    3    2    9    4
 0.03171278077175479    3    2    9    6
 0.08589056522785952    3    2    9    8
 0.006171896608031767    3    2   10    1
 0.02300295305489381    3    2   10    3
 0.04267924003975904    3    2   10    5
 -0.001003069925892205    3    2   10    7
 -0.1104612371254592    3    2   10    9
 0.01176835280390685    3    2   11    2
 -0.02985740819338791    3    2   11    4
 0.009973401780488122    3    2   11    6
 -0.03446893230975728    3    2   11    8
 -0.09506831624195929    3    2   11   10
 -0.01483481674525456    3    2   12    1
 0.001734582836424902    3    2   12    3
 -0.00451920126658069    3    2   12    5
 -1.180834355893949e-15    3    2   12    6
 -0.02455190954358352    3    2   12    7
 -0.02725001077787931    3    2   12    9
 0.03470282717289448    3    2   12   11
 -1.247980604167495e-15    3    2   12   12
 0.3460908113631617    3    3    1    1
 0.323781983286571    3    3    2    2
 0.02079091403960942    3    3    3    1
 0.33504944199167    3    3    3    3
 -0.01099462910901409    3    3    4    2
 0.3037999396453775    3    3    4    4
 -0.005916786608600577    3    3    5    1
 -0.02957715747736848    3    3    5    3
 0.282340755252467    3    3    5    5
 -0.01402417949827134    3    3    6    2
 -0.04539130382755889    3    3    6    4
 0.2860749789078937    3    3    6    6
 0.04788779720591829    3    3    7    1
 0.0002013198983742659    3    3    7    3
 -0.01122520419139272    3    3    7    5
 0.3073132009388583    3    3    7    7
 -0.04472613289353081    3    3    8    2
 -0.001930840449739168    3    3    8    4
 -0.0108599337614645    3    3    8    6
 0.3013481593778657    3    3    8    8
 0.001023384397373548    3    3    9    1
 -0.04883274810433155    3    3    9    3
 -0.0321180111434116    3    3    9    5
 -0.006018973667595781    3    3    9    7
 0.3119664442670049    3    3    9    9
 0.007557207418504051    3    3   10    2
 0.03841664764871557    3    3   10    4
 0.02807376766142203    3    3   10    6
 -0.01486026891672718    3    3   10    8
 0.3202842401463752    3    3   10   10
 0.01013369330981443    3    3   11    1
 0.01682967894434638    3    3   11    3
 -0.04451091043263561    3    3   11    5
 0.01820381454371513    3    3   11    7
 -0.0002092757721366481    3    3   11    9
 0.3135534399547543    3    3   11   11
 -0.00302712094282046    3    3   12    2
 0.02872372126567695    3    3   12    4
 -0.04617131947003535    3    3   12    6
 0.02058905605441497    3    3   12    8
 -0.01129126182681629    3    3   12   10
 0.3390850743239326    3    3   12   12
 -0.04734473698425175    4    1    2    1
 -0.006932599046054829    4    1    3    2
 0.05964635164357078    4    1    4    1
 0.005980510718194254    4    1    4    3
 -0.03589242082930586    4    1    5    2
 0.004147071121001489    4    1    5    4
 -0.02819547715908602    4    1    6    1
 -0.0360186067114058    4    1    6    3
 0.01084086427985764    4    1    6    5
 -0.01051312708854305    4    1    7    2
 0.01910751546230024    4    1    7    4
 -0.01232911548464472    4    1    7    6
 0.01919466636356891    4    1    8    1
 0.01820289433647804    4    1    8    3
 0.00215465527893611    4    1    8    5
 0.03543221894977813    4    1    8    7
 0.02341005040210594    4    1    9    2
 -0.006950883950622389    4    1    9    4
 -0.002478109364601824    4    1    9    6
 -0.0265144441726161    4    1    9    8
 0.0137586931464095    4    1   10    1
 -0.02892112451019694    4    1   10    3
 0.02399926527398354    4    1   10    5
 0.02996118954748317    4    1   10    7
 0.004831049879455929    4    1   10    9
 0.01833072030535417    4    1   11    2
 0.0007847388536151921    4    1   11    4
 -0.02788382084824439    4    1   11    6
 -0.01567327574070108    4    1   11    8
 -0.03767558049253661    4    1   11   10
 0.02269527283733618    4    1   12    1
 0.02730435932047888    4    1   12    3
 -0.02687898571406478    4    1   12    5
 0.04109452315897708    4    1   12    7
 -0.01955253903718716    4    1   12    9
 0.04935001253984119    4    1   12   11
 -0.07568997652398191    4    2    1    1
 -0.02014731768238891    4    2    2    2
 -0.04793398128302404    4    2    3    1
 -0.01099462910901408    4    2    3    3
 0.06437248305201515    4    2    4    2
 -0.01553399587334149    4    2    4    4
 -0.01620335308691278    4    2    5    1
 0.05006605238556519    4    2    5    3
 -0.01131847225184649    4    2    5    5
 -0.007513381665571289    4    2    6    2
 0.04001014823638006    4    2    6    4
 -0.02405650882122405    4    2    6    6
 -0.01500602102470355    4    2    7    1
 -0.01740736539473411    4    2    7    3
 -0.002377160175419972    4    2    7    5
 -0.05281457201894055    4    2    7    7
 -0.002660219003985401    4    2    8    2
 -0.02786478964592547    4    2    8    4
 0.01837910960753057    4    2    8    6
 -0.01284247871189349    4    2    8    8
 0.02516408035397333    4    2    9    1
 -0.0234778094295567    4    2    9    3
 0.004791082879386583    4    2    9    5
 0.05069749041637406    4    2    9    7
 0.02880246628721512    4    2    9    9
 0.03666194388225168    4    2   10    2
 0.01318294990560772    4    2   10    4
 -0.03894773267919954    4    2   10    6
 -0.04796376131415194    4    2   10    8
 -0.01282820754467447    4    2   10   10
 0.007500326184892312    4    2   11    1
 -0.02712419113335826    4    2   11    3
 0.02439402751672816    4    2   11    5
 -0.001736503191549449    4    2   11    7
 0.02652625427349945    4    2   11    9
 -0.0587703680992504    4    2   11   11
 0.001717644106242534    4    2   12    2
 -0.005077922065853258    4    2   12    4
 0.02831966790888878    4    2   12    6
 -0.03495751194992633    4    2   12    8
 0.01888763225116166    4    2   12   10
 -0.07654084543507128    4    2   12   12
 -0.06724650763972147    4    3    2    1
 0.06773953204715802    4    3    3    2
 0.005980510718194264    4    3    4    1
 0.07280919021671407    4    3    4    3
 0.01261608667846159    4    3    5    2
 0.06308705503989069    4    3    5    4
 -0.01264396002728893    4    3    6    1
 -0.02281214161038634    4    3    6    3
 0.05222221498429004    4    3    6    5
 -0.01708570632294812    4    3    7    2
 -0.002786886156927175    4    3    7    4
 0.003965359986805008    4    3    7    6
 0.0211875613359613    4    3    8    1
 -0.01330964061421584    4    3    8    3
 -0.01435934348961416    4    3    8    5
 0.06523292984832385    4    3    8    7
 -0.02507500824027983    4    3    9    2
 -0.03222325600555263    4    3    9    4
 0.0353063302239946    4    3    9    6
 0.06254193386352251    4    3    9    8
 -0.01505145490730383    4    3   10    1
 0.02137342720138228    4    3   10    3
 0.0185961517908916    4    3   10    5
 -0.01447417119631531    4    3   10    7
 -0.084484987741033    4    3   10    9
 -0.01047494092675322    4    3   11    2
 -0.003937269558501023    4    3   11    4
 0.007788484011404481    4    3   11    6
 -0.001665065949006385    4    3   11    8
 -0.05417530203025728    4    3   11   10
 0.01599751045810454    4    3   12    1
 0.02007793365094246    4    3   12    3
 -0.005322584863228641    4    3   12    5
 0.01383116808324121    4    3   12    7
 -0.03836992553606814    4    3   12    9
 0.03906927427288192    4    3   12   11
 0.3212034381393655    4    4    1    1
 0.3051754484790982    4    4    2    2
 0.01339064610477715    4    4    3    1
 0.3037999396453775    4    4    3    3
 -0.01553399587334151    4    4    4    2
 0.2970015241072151    4    4    4    4
 0.00338144074559832    4    4    5    1
 -0.01564319846645693    4    4    5    3
 0.2754290000501719    4    4    5    5
 -0.003974720674933291    4    4    6    2
 -0.03326731685111595    4    4    6    4
 0.2752000760511872    4    4    6    6
 0.03966125235554162    4    4    7    1
 -0.0001823927487757025    4    4    7    3
 -0.00648849922911922    4    4    7    5
 0.286531569326279    4    4    7    7
 -0.03826755310917125    4    4    8    2
 0.0008574846764616956    4    4    8    4
 -0.009429661599246181    4    4    8    6
 0.2832590801922981    4    4    8    8
 -0.003724897226564136    4    4    9    1
 -0.03749593609275154    4    4    9    3
 -0.02568973072565685    4    4    9    5
 -0.005782716941555561    4    4    9    7
 0.2895645084566506    4    4    9    9
 0.0001104207858661168    4    4   10    2
 0.03238162768338693    4    4   10    4
 0.02259835347296815    4    4   10    6
 -0.007609553404741293    4    4   10    8
 0.3045274116296383    4    4   10   10
 0.003667611564525755    4    4   11    1
 0.01729326144955179    4    4   11    3
 -0.03781973800672891    4    4   11    5
 -1.233712995885128e-15    4    4   11    6
 0.009492396823244993    4    4   11    7
 0.00453605461896835    4    4   11    9
 0.2966889531014339    4    4   11   11
 0.001647822209626369    4    4   12    2
 0.0227941217473323    4    4   12    4
 -0.03678542678001622    4    4   12    6
 0.01710228237320998    4    4   12    8
 -0.01158073914946988    4    4   12   10
 -1.632056893392902e-15    4    4   12   11
 0.3132539910666546    4    4   12   12
 0.005223042599817047    5    1    1    1
 0.03447112108948699    5    1    2    2
 -0.02972182783153159    5    1    3    1
 -0.005916786608600594    5    1    3    3
 -0.01620335308691276    5    1    4    2
 0.0033814407455983    5    1    4    4
 0.03533629358311471    5    1    5    1
 -0.006435596505173796    5    1    5    3
 0.01115526958980454    5    1    5    5
 -0.02114100018500625    5    1    6    2
 0.005471587420061044    5    1    6    4
 -0.001591679270516737    5    1    6    6
 -0.002281093502980126    5    1    7    1
 -0.0113420692525135    5    1    7    3
 0.01116211640340566    5    1    7    5
 0.002255475694183048    5    1    7    7
 -0.00388707734859617    5    1    8    2
 0.001354125279849018    5    1    8    4
 0.007635312825656399    5    1    8    6
 0.01480927235375873    5    1    8    8
 -0.004805150261724106    5    1    9    1
 0.006760535686576356    5    1    9    3
 -0.008822641476155243    5    1    9    5
 0.004149361886046385    5    1    9    7
 -0.00433315619593835    5    1    9    9
 -0.02852953036446024    5    1   10    2
 0.01587621774706541    5    1   10    4
 0.01092084914681682    5    1   10    6
 0.02434359294471648    5    1   10    8
 0.03385802431149469    5    1   10   10
 -0.02612064194897633    5    1   11    1
 0.004633045125937051    5    1   11    3
 -0.02027845390849895    5    1   11    5
 -0.03459396821806623    5    1   11    7
 0.01218878636215423    5    1   11    9
 0.03154286919102613    5    1   11   11
 0.01365161774564638    5    1   12    2
 -0.01959139182555297    5    1   12    4
 0.008537537482117529    5    1   12    6
 -0.01876363224560195    5    1   12    8
 -0.01105999139990975    5    1   12   10
 -0.01538536175935313    5    1   12   12
 0.04210112851328373    5    2    2    1
 -0.01210973438334083    5    2    3    2
 -0.03589242082930588    5    2    4    1
 0.01261608667846162    5    2    4    3
 0.0472842920555953    5    2    5    2
 -0.005327616304226524    5    2    5    4
 -0.006339235026024443    5    2    6    1
 0.02680948713088016    5    2    6    3
 -0.004273471023646722    5    2    6    5
 0.00987708909805925    5    2    7    2
 -0.008309454826392818    5    2    7    4
 -0.002143094621044877    5    2    7    6
 -0.008631795502117111    5    2    8    1
 -0.003552570897656519    5    2    8    3
 -0.009162968231539264    5    2    8    5
 -0.02483017867939287    5    2    8    7
 -0.01782768435619641    5    2    9    2
 0.00493762051282807    5    2    9    4
 0.01115041674032877    5    2    9    6
 0.01564556109464593    5    2    9    8
 -0.02772010729865617    5    2   10    1
 0.02476697278670537    5    2   10    3
 -0.03203057074059702    5    2   10    5
 -0.03486322775991878    5    2   10    7
 -0.001272912751487212    5    2   10    9
 -0.03116420163549099    5    2   11    2
 0.01667512635292668    5    2   11    4
 0.02175340360358063    5    2   11    6
 0.03418387639013632    5    2   11    8
 0.04710296649245376    5    2   11   10
 0.006547984566930195    5    2   12    1
 -0.004886071667469676    5    2   12    3
 0.01931643477823567    5    2   12    5
 -0.002832942266082052    5    2   12    7
 0.00055253556621914    5    2   12    9
 -0.0277868792363159    5    2   12   11
 -0.07850205099302988    5    3    1    1
 -0.02765856488460868    5    3    2    2
 -0.04538312988880288    5    3    3    1
 -0.02957715747736845    5    3    3    3
 0.05006605238556524    5    3    4    2
 -0.01564319846645693    5    3    4    4
 -0.006435596505173781    5    3    5    1
 0.05171208821230713    5    3    5    3
 -0.01325168120320694    5    3    5    5
 0.0008098237665998409    5    3    6    2
 0.04105187961490307    5    3    6    4
 -0.02648543339115596    5    3    6    6
 -0.01718035912610838    5    3    7    1
 -0.01447075282223962    5    3    7    3
 0.001204506031452598    5    3    7    5
 -0.057361939648423    5    3    7    7
 0.001551800641042629    5    3    8    2
 -0.02095117595871317    5    3    8    4
 0.01601863947669151    5    3    8    6
 -0.02177127389858236    5    3    8    8
 0.01719034195152318    5    3    9    1
 -0.01257155542613752    5    3    9    3
 0.008197769485434315    5    3    9    5
 0.04261783525544837    5    3    9    7
 0.009783078121458495    5    3    9    9
 0.02536938046579547    5    3   10    2
 0.007512743968072461    5    3   10    4
 -0.03615079137609004    5    3   10    6
 -0.0351148003067628    5    3   10    8
 -0.02006773033071611    5    3   10   10
 0.002113207019042608    5    3   11    1
 -0.02192477635629701    5    3   11    3
 0.02417929884009016    5    3   11    5
 -0.007641584500894304    5    3   11    7
 0.02569849082466578    5    3   11    9
 -0.05943230922359107    5    3   11   11
 0.004465290939283118    5    3   12    2
 -0.007877237808132246    5    3   12    4
 0.0292976245797658    5    3   12    6
 -0.03132145558945628    5    3   12    8
 0.01526732713680307    5    3   12   10
 -0.07985110759210015    5    3   12   12
 -0.0803571311051621    5    4    2    1
 0.08431782897725602    5    4    3    2
 0.004147071121001467    5    4    4    1
 0.06308705503989058    5    4    4    3
 -0.005327616304226492    5    4    5    2
 0.08543645786851732    5    4    5    4
 0.006044923003109761    5    4    6    1
 -0.01262454027721143    5    4    6    3
 0.06508017760477774    5    4    6    5
 -3.518901205621301e-15    5    4    6    6
 -0.01614348795016586    5    4    7    2
 -0.004878355711679837    5    4    7    4
 0.01633453963131136    5    4    7    6
 0.01421368790936687    5    4    8    1
 -0.01826355669247486    5    4    8    3
 -0.003966283508532379    5    4    8    5
 0.06856713534495655    5    4    8    7
 -0.0147060118560383    5    4    9    2
 -0.02378555376628886    5    4    9    4
 0.03179878414727407    5    4    9    6
 0.06398835803253755    5    4    9    8
 0.007335154802379814    5    4   10    1
 0.01011150957866896    5    4   10    3
 0.02768282381198299    5    4   10    5
 0.00332660044918616    5    4   10    7
 -0.09033332433534366    5    4   10    9
 0.0128891659344867    5    4   11    2
 -0.01725724432968763    5    4   11    4
 0.01262542794812812    5    4   11    6
 -0.02883003884054942    5    4   11    8
 -0.08213596574505067    5    4   11   10
 -0.01015549112839182    5    4   12    1
 0.005999135283564765    5    4   12    3
 -0.003986591788830202    5    4   12    5
 -3.569643054089475e-15    5    4   12    6
 -0.01188263683876127    5    4   12    7
 -0.02358276478006318    5    4   12    9
 0.03581283103244265    5    4   12   11
 -3.708763023254676e-15    5    4   12   12
 0.2927520070912978    5    5    1    1
 0.2935212417059103    5    5    2    2
 -0.002087150425334964    5    5    3    1
 0.282340755252467    5    5    3    3
 -0.01131847225184668    5    5    4    2
 0.2754290000501717    5    5    4    4
 0.01115526958980447    5    5    5    1
 -0.01325168120320691    5    5    5    3
 0.2719127598574126    5    5    5    5
 -0.01214005004739652    5    5    6    2
 -0.01221344590704737    5    5    6    4
 -1.533189528423368e-15    5    5    6    5
 0.2609192874690105    5    5    6    6
 0.03135339002148529    5    5    7    1
 -0.004147060240124674    5    5    7    3
 0.001037216309749969    5    5    7    5
 0.2628063506020179    5    5    7    7
 -0.03185724825658661    5    5    8    2
 0.001680026941978132    5    5    8    4
 -0.002276584790302455    5    5    8    6
 0.2658948373682687    5    5    8    8
 -0.004855424569668075    5    5    9    1
 -0.02365795052224041    5    5    9    3
 -0.01972228634250758    5    5    9    5
 -0.001228898671158046    5    5    9    7
 0.2663736569836358    5    5    9    9
 -0.0158523504775668    5    5   10    2
 0.03081997035159214    5    5   10    4
 0.01901547622947897    5    5   10    6
 0.003549130636714753    5    5   10    8
 0.2955213728606224    5    5   10   10
 -0.01087896810485872    5    5   11    1
 0.01839014526550313    5    5   11    3
 -0.03669315360733566    5    5   11    5
 -0.007106498887723865    5    5   11    7
 0.01107470118831756    5    5   11    9
 0.289216888866467    5    5   11   11
 0.008112147307608427    5    5   12    2
 0.01090997331315168    5    5   12    4
 -1.726284468144166e-15    5    5   12    5
 -0.02341660595083565    5    5   12    6
 0.002595844370238172    5    5   12    8
 -0.01686333825036558    5    5   12   10
 0.2756696463409227    5    5   12   12
 0.004309070755247134    6    1    2    1
 0.02430678090182388    6    1    3    2
 -0.02819547715908608    6    1    4    1
 -0.01264396002728899    6    1    4    3
 -0.006339235026024459    6    1    5    2
 0.006044923003109829    6    1    5    4
 0.03502320790012852    6    1    6    1
 0.01093727388496722    6    1    6    3
 -0.003820394886727322    6    1    6    5
 -0.0003701664829761729    6    1    7    2
 -0.01221607241499796    6    1    7    4
 0.01507034096875013    6    1    7    6
 -0.0097453056043429    6    1    8    1
 -0.01744879495328619    6    1    8    3
 0.005374806196940237    6    1    8    5
 -0.008574451720366321    6    1    8    7
 -0.01007902592412383    6    1    9    2
 -0.0009092219509480524    6    1    9    4
 -0.004875025116610879    6    1    9    6
 0.01846048127575018    6    1    9    8
 0.01102020446589751    6    1   10    1
 0.009335691599770993    6    1   10    3
 0.007190409809356452    6    1   10    5
 5.019090208348693e-06    6    1   10    7
 -0.01124550226777711    6    1   10    9
 0.009672029027286318    6    1   11    2
 -0.01736999420360423    6    1   11    4
 0.009093698296164398    6    1   11    6
 -0.01589522927713487    6    1   11    8
 -0.009834134259846668    6    1   11   10
 -0.02899493935006328    6    1   12    1
 -0.02224360676686838    6    1   12    3
 0.009549940930179952    6    1   12    5
 -0.03993720683188733    6    1   12    7
 0.01713319550595854    6    1   12    9
 -0.02267839199175585    6    1   12   11
 1.221987285881633e-15    6    1   12   12
 -0.0004835133404005096    6    2    1    1
 -0.03953811280492071    6    2    2    2
 0.03644007805663511    6    2    3    1
 -0.01402417949827127    6    2    3    3
 -0.007513381665571253    6    2    4    2
 -0.003974720674933137    6    2    4    4
 -0.02114100018500623    6    2    5    1
 0.0008098237665997587    6    2    5    3
 -0.01214005004739672    6    2    5    5
 0.02891084388872638    6    2    6    2
 -0.008036222095131508    6    2    6    4
 0.0005531632075071987    6    2    6    6
 0.0003300406162469879    6    2    7    1
 0.01581846125641061    6    2    7    3
 -0.005948387305843195    6    2    7    5
 -0.001723640932249183    6    2    7    7
 0.00983957306346475    6    2    8    2
 0.009693525651467584    6    2    8    4
 -0.0116316303929969    6    2    8    6
 -0.02361579926679745    6    2    8    8
 -0.006891757899396864    6    2    9    1
 0.0100186026218026    6    2    9    3
 0.01185628670274586    6    2    9    5
 -0.01928139936361983    6    2    9    7
 -0.02246357127858374    6    2    9    9
 0.009367436798394175    6    2   10    2
 -0.02361723282974737    6    2   10    4
 -0.002105810565383501    6    2   10    6
 -0.001993439001949563    6    2   10    8
 -0.04004931067376893    6    2   10   10
 0.01712571088957583    6    2   11    1
 0.004222742066348668    6    2   11    3
 0.01632784554962952    6    2   11    5
 0.02578945300959759    6    2   11    7
 -0.01629542421345908    6    2   11    9
 -0.02397455281266491    6    2   11   11
 -0.0101153509175407    6    2   12    2
 0.01486026682077668    6    2   12    4
 -0.009334352228152702    6    2   12    6
 0.02513233542107863    6    2   12    8
 0.004108624334430966    6    2   12   10
 0.01804575490933313    6    2   12   12
 0.05571300171880616    6    3    2    1
 -0.02664065506737135    6    3    3    2
 -0.0360186067114059    6    3    4    1
 -0.02281214161038641    6    3    4    3
 0.02680948713088004    6    3    5    2
 -0.01262454027721162    6    3    5    4
 0.01093727388496723    6    3    6    1
 0.04170752756802415    6    3    6    3
 -0.01468706475475248    6    3    6    5
 1.308672667625074e-15    6    3    6    6
 0.01662217933544267    6    3    7    2
 -0.007154782928604861    6    3    7    4
 0.004511912626032945    6    3    7    6
 -0.02100115761037651    6    3    8    1
 -0.0006418258596750224    6    3    8    3
 0.004681039209496578    6    3    8    5
 -0.0459794614272486    6    3    8    7
 0.001674777219662317    6    3    9    2
 0.02355317156538464    6    3    9    4
 -0.005472128569057071    6    3    9    6
 -0.009748894010031048    6    3    9    8
 -0.003811881789912445    6    3   10    1
 0.006192105736391152    6    3   10    3
 -0.03108327378588102    6    3   10    5
 -0.0139635123139165    6    3   10    7
 0.02828979373539019    6    3   10    9
 -0.008407644958194372    6    3   11    2
 0.008182898042931009    6    3   11    4
 0.0205326605404179    6    3   11    6
 0.01335070366341697    6    3   11    8
 0.04520957048804438    6    3   11   10
 1.386091862456481e-15    6    3   11   11
 -0.01784291822654154    6    3   12    1