2    
Iteration 0 Energy -109.02354179
N        0.0000000000    0.0000000000    0.0000000000
N        0.0000000000    0.0000000000    1.2000000000
2    
Iteration 1 Energy -109.04585977
N       -0.0000000000   -0.0000000000    0.0541939833
N        0.0000000000    0.0000000000    1.1458060166
2    
Iteration 2 Energy -109.04609637
N        0.0000033123   -0.0000038819    0.0472951689
N       -0.0000033123    0.0000038819    1.1527048311
2    
Iteration 3 Energy -109.04614434
N       -0.0000039306    0.0000006458    0.0492573882
N        0.0000039306   -0.0000006458    1.1507426118
